<?xml version="1.0" encoding="UTF-8"?>

<!-- generated on 2025-03-10 13:18:13 by Eclipse SUMO GUI Version v1_22_0+0087-91b2b3c2d6e
<sumoConfiguration xmlns:xsi="http://www.w3.org/2001/XMLSchema-instance" xsi:noNamespaceSchemaLocation="http://sumo.dlr.de/xsd/sumoConfiguration.xsd">

    <input>
        <net-file value="data/sumonet.net.xml"/>
        <route-files value="data/sumoconfig.rou.xml"/>
    </input>

    <output>
        <tripinfo-output value="tripinfo.xml"/>
    </output>

    <report>
        <no-step-log value="false"/>
    </report>

    <traci_server>
        <remote-port value="56093"/>
    </traci_server>

    <gui_only>
        <start value="true"/>
        <delay value="100"/>
    </gui_only>

</sumoConfiguration>
-->

<tripinfos xmlns:xsi="http://www.w3.org/2001/XMLSchema-instance" xsi:noNamespaceSchemaLocation="http://sumo.dlr.de/xsd/tripinfo_file.xsd">
    <tripinfo id="veh_8" depart="4.00" departLane="-E4_0" departPos="4.90" departSpeed="0.00" departDelay="0.00" arrival="29.00" arrivalLane="-E5_0" arrivalPos="92.80" arrivalSpeed="12.71" duration="25.00" routeLength="195.10" waitingTime="0.00" waitingCount="0" stopTime="0.00" timeLoss="9.70" rerouteNo="0" devices="tripinfo_veh_8" vType="sedan" speedFactor="0.94" vaporized=""/>
    <tripinfo id="veh_0" depart="0.00" departLane="E5_0" departPos="4.40" departSpeed="0.00" departDelay="0.00" arrival="37.00" arrivalLane="E3_0" arrivalPos="100.00" arrivalSpeed="14.42" duration="37.00" routeLength="290.33" waitingTime="0.00" waitingCount="0" stopTime="0.00" timeLoss="15.91" rerouteNo="0" devices="tripinfo_veh_0" vType="hatchback" speedFactor="1.06" vaporized=""/>
    <tripinfo id="veh_1" depart="5.00" departLane="E5_0" departPos="5.60" departSpeed="0.00" departDelay="5.00" arrival="40.00" arrivalLane="E4_0" arrivalPos="92.80" arrivalSpeed="10.73" duration="35.00" routeLength="194.40" waitingTime="0.00" waitingCount="0" stopTime="0.00" timeLoss="19.82" rerouteNo="0" devices="tripinfo_veh_1" vType="van" speedFactor="0.94" vaporized=""/>
    <tripinfo id="veh_3" depart="10.00" departLane="E5_0" departPos="4.40" departSpeed="0.00" departDelay="9.00" arrival="47.00" arrivalLane="E3_0" arrivalPos="100.00" arrivalSpeed="14.99" duration="37.00" routeLength="290.33" waitingTime="0.00" waitingCount="0" stopTime="0.00" timeLoss="16.09" rerouteNo="0" devices="tripinfo_veh_3" vType="hatchback" speedFactor="1.08" vaporized=""/>
    <tripinfo id="veh_5" depart="15.00" departLane="E5_0" departPos="5.20" departSpeed="0.00" departDelay="13.00" arrival="54.00" arrivalLane="-E0_0" arrivalPos="100.00" arrivalSpeed="11.37" duration="39.00" routeLength="294.70" waitingTime="0.00" waitingCount="0" stopTime="0.00" timeLoss="12.52" rerouteNo="0" devices="tripinfo_veh_5" vType="wagon" speedFactor="0.83" vaporized=""/>
    <tripinfo id="veh_14" depart="9.00" departLane="-E4_0" departPos="5.10" departSpeed="0.00" departDelay="1.00" arrival="55.00" arrivalLane="E3_0" arrivalPos="100.00" arrivalSpeed="13.56" duration="46.00" routeLength="294.80" waitingTime="1.00" waitingCount="1" stopTime="0.00" timeLoss="23.43" rerouteNo="0" devices="tripinfo_veh_14" vType="standard_car" speedFactor="0.99" vaporized=""/>
    <tripinfo id="veh_19" depart="14.00" departLane="-E4_0" departPos="4.90" departSpeed="0.00" departDelay="4.00" arrival="55.00" arrivalLane="-E5_0" arrivalPos="92.80" arrivalSpeed="11.08" duration="41.00" routeLength="195.10" waitingTime="2.00" waitingCount="1" stopTime="0.00" timeLoss="28.64" rerouteNo="0" devices="tripinfo_veh_19" vType="sedan" speedFactor="1.16" vaporized=""/>
    <tripinfo id="veh_6" depart="20.00" departLane="E5_0" departPos="5.10" departSpeed="0.00" departDelay="18.00" arrival="57.00" arrivalLane="E3_0" arrivalPos="100.00" arrivalSpeed="14.41" duration="37.00" routeLength="289.63" waitingTime="0.00" waitingCount="0" stopTime="0.00" timeLoss="15.67" rerouteNo="0" devices="tripinfo_veh_6" vType="standard_car" speedFactor="1.05" vaporized=""/>
    <tripinfo id="veh_4" depart="2.00" departLane="-E3_0" departPos="5.20" departSpeed="0.00" departDelay="0.00" arrival="60.00" arrivalLane="-E5_0" arrivalPos="92.80" arrivalSpeed="11.68" duration="58.00" routeLength="294.70" waitingTime="8.00" waitingCount="3" stopTime="0.00" timeLoss="36.16" rerouteNo="0" devices="tripinfo_veh_4" vType="wagon" speedFactor="1.03" vaporized=""/>
    <tripinfo id="veh_2" depart="0.00" departLane="E0_0" departPos="5.20" departSpeed="0.00" departDelay="0.00" arrival="62.00" arrivalLane="E4_0" arrivalPos="92.80" arrivalSpeed="10.64" duration="62.00" routeLength="294.70" waitingTime="16.00" waitingCount="2" stopTime="0.00" timeLoss="39.87" rerouteNo="0" devices="tripinfo_veh_2" vType="wagon" speedFactor="1.01" vaporized=""/>
    <tripinfo id="veh_7" depart="5.00" departLane="E0_0" departPos="4.40" departSpeed="0.00" departDelay="2.00" arrival="64.00" arrivalLane="-E5_0" arrivalPos="92.80" arrivalSpeed="10.77" duration="59.00" routeLength="290.33" waitingTime="9.00" waitingCount="1" stopTime="0.00" timeLoss="34.29" rerouteNo="0" devices="tripinfo_veh_7" vType="hatchback" speedFactor="0.89" vaporized=""/>
    <tripinfo id="veh_25" depart="20.00" departLane="-E4_0" departPos="5.60" departSpeed="0.00" departDelay="5.00" arrival="69.00" arrivalLane="-E0_0" arrivalPos="100.00" arrivalSpeed="11.87" duration="49.00" routeLength="289.13" waitingTime="0.00" waitingCount="0" stopTime="0.00" timeLoss="24.38" rerouteNo="0" devices="tripinfo_veh_25" vType="van" speedFactor="0.87" vaporized=""/>
    <tripinfo id="veh_9" depart="7.00" departLane="-E3_0" departPos="5.60" departSpeed="0.00" departDelay="3.00" arrival="74.00" arrivalLane="E4_0" arrivalPos="92.80" arrivalSpeed="10.29" duration="67.00" routeLength="289.13" waitingTime="9.00" waitingCount="2" stopTime="0.00" timeLoss="41.76" rerouteNo="0" devices="tripinfo_veh_9" vType="van" speedFactor="0.86" vaporized=""/>
    <tripinfo id="veh_32" depart="25.00" departLane="-E4_0" departPos="5.60" departSpeed="0.00" departDelay="7.00" arrival="77.00" arrivalLane="-E0_0" arrivalPos="100.00" arrivalSpeed="13.73" duration="52.00" routeLength="289.13" waitingTime="1.00" waitingCount="1" stopTime="0.00" timeLoss="30.45" rerouteNo="0" devices="tripinfo_veh_32" vType="van" speedFactor="1.01" vaporized=""/>
    <tripinfo id="veh_10" depart="10.00" departLane="E0_0" departPos="4.90" departSpeed="0.00" departDelay="5.00" arrival="80.00" arrivalLane="E4_0" arrivalPos="92.80" arrivalSpeed="11.13" duration="70.00" routeLength="295.00" waitingTime="12.00" waitingCount="3" stopTime="0.00" timeLoss="49.52" rerouteNo="0" devices="tripinfo_veh_10" vType="sedan" speedFactor="1.09" vaporized=""/>
    <tripinfo id="veh_16" depart="12.00" departLane="-E3_0" departPos="5.20" departSpeed="0.00" departDelay="4.00" arrival="83.00" arrivalLane="-E5_0" arrivalPos="92.80" arrivalSpeed="11.68" duration="71.00" routeLength="294.70" waitingTime="9.00" waitingCount="3" stopTime="0.00" timeLoss="45.94" rerouteNo="0" devices="tripinfo_veh_16" vType="wagon" speedFactor="0.88" vaporized=""/>
    <tripinfo id="veh_11" depart="26.00" departLane="E5_0" departPos="5.60" departSpeed="0.00" departDelay="21.00" arrival="84.00" arrivalLane="-E0_0" arrivalPos="100.00" arrivalSpeed="13.93" duration="58.00" routeLength="294.30" waitingTime="10.00" waitingCount="1" stopTime="0.00" timeLoss="35.60" rerouteNo="0" devices="tripinfo_veh_11" vType="van" speedFactor="1.03" vaporized=""/>
    <tripinfo id="veh_22" depart="17.00" departLane="-E3_0" departPos="5.10" departSpeed="0.00" departDelay="4.00" arrival="86.00" arrivalLane="-E5_0" arrivalPos="92.80" arrivalSpeed="12.09" duration="69.00" routeLength="294.80" waitingTime="10.00" waitingCount="4" stopTime="0.00" timeLoss="46.23" rerouteNo="0" devices="tripinfo_veh_22" vType="standard_car" speedFactor="0.97" vaporized=""/>
    <tripinfo id="veh_27" depart="22.00" departLane="-E3_0" departPos="5.20" departSpeed="0.00" departDelay="6.00" arrival="88.00" arrivalLane="E4_0" arrivalPos="92.80" arrivalSpeed="11.68" duration="66.00" routeLength="289.53" waitingTime="6.00" waitingCount="2" stopTime="0.00" timeLoss="43.00" rerouteNo="0" devices="tripinfo_veh_27" vType="wagon" speedFactor="0.95" vaporized=""/>
    <tripinfo id="veh_12" depart="16.00" departLane="E0_0" departPos="5.60" departSpeed="0.00" departDelay="10.00" arrival="97.00" arrivalLane="E4_0" arrivalPos="92.80" arrivalSpeed="11.10" duration="81.00" routeLength="294.30" waitingTime="15.00" waitingCount="4" stopTime="0.00" timeLoss="59.45" rerouteNo="0" devices="tripinfo_veh_12" vType="van" speedFactor="1.05" vaporized=""/>
    <tripinfo id="veh_35" depart="27.00" departLane="-E3_0" departPos="4.40" departSpeed="0.00" departDelay="8.00" arrival="100.00" arrivalLane="E4_0" arrivalPos="92.80" arrivalSpeed="10.68" duration="73.00" routeLength="290.33" waitingTime="7.00" waitingCount="3" stopTime="0.00" timeLoss="51.83" rerouteNo="0" devices="tripinfo_veh_35" vType="hatchback" speedFactor="1.02" vaporized=""/>
    <tripinfo id="veh_38" depart="32.00" departLane="-E3_0" departPos="5.10" departSpeed="0.00" departDelay="12.00" arrival="103.00" arrivalLane="-E5_0" arrivalPos="92.80" arrivalSpeed="11.90" duration="71.00" routeLength="294.80" waitingTime="5.00" waitingCount="2" stopTime="0.00" timeLoss="50.95" rerouteNo="0" devices="tripinfo_veh_38" vType="standard_car" speedFactor="1.10" vaporized=""/>
    <tripinfo id="veh_44" depart="37.00" departLane="-E3_0" departPos="5.10" departSpeed="0.00" departDelay="15.00" arrival="105.00" arrivalLane="E4_0" arrivalPos="92.80" arrivalSpeed="11.12" duration="68.00" routeLength="289.63" waitingTime="1.00" waitingCount="1" stopTime="0.00" timeLoss="47.36" rerouteNo="0" devices="tripinfo_veh_44" vType="standard_car" speedFactor="1.04" vaporized=""/>
    <tripinfo id="veh_24" depart="31.00" departLane="E5_0" departPos="4.40" departSpeed="0.00" departDelay="17.00" arrival="106.00" arrivalLane="E3_0" arrivalPos="100.00" arrivalSpeed="11.37" duration="75.00" routeLength="290.33" waitingTime="26.00" waitingCount="3" stopTime="0.00" timeLoss="47.86" rerouteNo="0" devices="tripinfo_veh_24" vType="hatchback" speedFactor="0.83" vaporized=""/>
    <tripinfo id="veh_48" depart="47.00" departLane="-E3_0" departPos="5.60" departSpeed="0.00" departDelay="22.00" arrival="111.00" arrivalLane="-E5_0" arrivalPos="92.80" arrivalSpeed="11.97" duration="64.00" routeLength="294.30" waitingTime="0.00" waitingCount="0" stopTime="0.00" timeLoss="38.53" rerouteNo="0" devices="tripinfo_veh_48" vType="van" speedFactor="0.88" vaporized=""/>
    <tripinfo id="veh_67" depart="56.00" departLane="-E3_0" departPos="4.40" departSpeed="0.00" departDelay="22.00" arrival="115.00" arrivalLane="-E5_0" arrivalPos="92.80" arrivalSpeed="12.31" duration="59.00" routeLength="295.50" waitingTime="0.00" waitingCount="0" stopTime="0.00" timeLoss="34.42" rerouteNo="0" devices="tripinfo_veh_67" vType="hatchback" speedFactor="0.91" vaporized=""/>
    <tripinfo id="veh_47" depart="42.00" departLane="-E3_0" departPos="5.20" departSpeed="0.00" departDelay="17.00" arrival="116.00" arrivalLane="-E0_0" arrivalPos="100.00" arrivalSpeed="12.34" duration="74.00" routeLength="395.00" waitingTime="2.00" waitingCount="2" stopTime="0.00" timeLoss="41.45" rerouteNo="0" devices="tripinfo_veh_47" vType="wagon" speedFactor="0.90" vaporized=""/>
    <tripinfo id="veh_57" depart="52.00" departLane="-E3_0" departPos="5.10" departSpeed="0.00" departDelay="22.00" arrival="119.00" arrivalLane="-E0_0" arrivalPos="100.00" arrivalSpeed="15.79" duration="67.00" routeLength="395.10" waitingTime="0.00" waitingCount="0" stopTime="0.00" timeLoss="41.42" rerouteNo="0" devices="tripinfo_veh_57" vType="standard_car" speedFactor="1.14" vaporized=""/>
    <tripinfo id="veh_70" depart="72.00" departLane="-E3_0" departPos="4.90" departSpeed="0.00" departDelay="36.00" arrival="122.00" arrivalLane="-E5_0" arrivalPos="92.80" arrivalSpeed="12.89" duration="50.00" routeLength="295.00" waitingTime="1.00" waitingCount="1" stopTime="0.00" timeLoss="28.04" rerouteNo="0" devices="tripinfo_veh_70" vType="sedan" speedFactor="1.02" vaporized=""/>
    <tripinfo id="veh_68" depart="62.00" departLane="-E3_0" departPos="5.20" departSpeed="0.00" departDelay="28.00" arrival="124.00" arrivalLane="-E0_0" arrivalPos="100.00" arrivalSpeed="14.43" duration="62.00" routeLength="395.00" waitingTime="0.00" waitingCount="0" stopTime="0.00" timeLoss="34.05" rerouteNo="0" devices="tripinfo_veh_68" vType="wagon" speedFactor="1.04" vaporized=""/>
    <tripinfo id="veh_74" depart="78.00" departLane="-E3_0" departPos="5.20" departSpeed="0.00" departDelay="41.00" arrival="124.00" arrivalLane="E4_0" arrivalPos="92.80" arrivalSpeed="12.22" duration="46.00" routeLength="289.53" waitingTime="0.00" waitingCount="0" stopTime="0.00" timeLoss="22.75" rerouteNo="0" devices="tripinfo_veh_74" vType="wagon" speedFactor="0.96" vaporized=""/>
    <tripinfo id="veh_69" depart="67.00" departLane="-E3_0" departPos="5.60" departSpeed="0.00" departDelay="32.00" arrival="126.00" arrivalLane="-E0_0" arrivalPos="100.00" arrivalSpeed="13.85" duration="59.00" routeLength="394.60" waitingTime="0.00" waitingCount="0" stopTime="0.00" timeLoss="30.75" rerouteNo="0" devices="tripinfo_veh_69" vType="van" speedFactor="1.02" vaporized=""/>
    <tripinfo id="veh_81" depart="88.00" departLane="-E3_0" departPos="5.20" departSpeed="0.00" departDelay="41.00" arrival="129.00" arrivalLane="-E5_0" arrivalPos="92.80" arrivalSpeed="12.17" duration="41.00" routeLength="294.70" waitingTime="0.00" waitingCount="0" stopTime="0.00" timeLoss="18.83" rerouteNo="0" devices="tripinfo_veh_81" vType="wagon" speedFactor="1.00" vaporized=""/>
    <tripinfo id="veh_88" depart="93.00" departLane="-E3_0" departPos="4.90" departSpeed="0.00" departDelay="29.00" arrival="131.00" arrivalLane="E4_0" arrivalPos="92.80" arrivalSpeed="13.02" duration="38.00" routeLength="289.83" waitingTime="0.00" waitingCount="0" stopTime="0.00" timeLoss="16.05" rerouteNo="0" devices="tripinfo_veh_88" vType="sedan" speedFactor="1.01" vaporized=""/>
    <tripinfo id="veh_75" depart="83.00" departLane="-E3_0" departPos="4.90" departSpeed="0.00" departDelay="45.00" arrival="134.00" arrivalLane="-E0_0" arrivalPos="100.00" arrivalSpeed="13.54" duration="51.00" routeLength="395.30" waitingTime="0.00" waitingCount="0" stopTime="0.00" timeLoss="21.19" rerouteNo="0" devices="tripinfo_veh_75" vType="sedan" speedFactor="0.98" vaporized=""/>
    <tripinfo id="veh_13" depart="21.00" departLane="E0_0" departPos="4.90" departSpeed="0.00" departDelay="14.00" arrival="142.00" arrivalLane="E4_0" arrivalPos="92.80" arrivalSpeed="10.95" duration="121.00" routeLength="295.00" waitingTime="50.00" waitingCount="4" stopTime="0.00" timeLoss="100.80" rerouteNo="0" devices="tripinfo_veh_13" vType="sedan" speedFactor="1.12" vaporized=""/>
    <tripinfo id="veh_33" depart="30.00" departLane="-E4_0" departPos="4.40" departSpeed="0.00" departDelay="12.00" arrival="151.00" arrivalLane="-E0_0" arrivalPos="100.00" arrivalSpeed="15.57" duration="121.00" routeLength="290.33" waitingTime="68.00" waitingCount="3" stopTime="0.00" timeLoss="102.32" rerouteNo="0" devices="tripinfo_veh_33" vType="hatchback" speedFactor="1.17" vaporized=""/>
    <tripinfo id="veh_41" depart="35.00" departLane="-E4_0" departPos="5.10" departSpeed="0.00" departDelay="14.00" arrival="154.00" arrivalLane="-E0_0" arrivalPos="100.00" arrivalSpeed="13.21" duration="119.00" routeLength="289.63" waitingTime="66.00" waitingCount="3" stopTime="0.00" timeLoss="96.08" rerouteNo="0" devices="tripinfo_veh_41" vType="standard_car" speedFactor="0.96" vaporized=""/>
    <tripinfo id="veh_51" depart="50.00" departLane="-E4_0" departPos="5.60" departSpeed="0.00" departDelay="24.00" arrival="154.00" arrivalLane="-E5_0" arrivalPos="92.80" arrivalSpeed="11.60" duration="104.00" routeLength="194.40" waitingTime="58.00" waitingCount="3" stopTime="0.00" timeLoss="91.26" rerouteNo="0" devices="tripinfo_veh_51" vType="van" speedFactor="1.17" vaporized=""/>
    <tripinfo id="veh_43" depart="40.00" departLane="-E4_0" departPos="4.90" departSpeed="0.00" departDelay="18.00" arrival="156.00" arrivalLane="-E0_0" arrivalPos="100.00" arrivalSpeed="14.33" duration="116.00" routeLength="289.83" waitingTime="65.00" waitingCount="3" stopTime="0.00" timeLoss="94.99" rerouteNo="0" devices="tripinfo_veh_43" vType="sedan" speedFactor="1.04" vaporized=""/>
    <tripinfo id="veh_56" depart="56.00" departLane="-E4_0" departPos="5.10" departSpeed="0.00" departDelay="27.00" arrival="156.00" arrivalLane="-E5_0" arrivalPos="92.80" arrivalSpeed="12.42" duration="100.00" routeLength="194.90" waitingTime="58.00" waitingCount="2" stopTime="0.00" timeLoss="83.64" rerouteNo="0" devices="tripinfo_veh_56" vType="standard_car" speedFactor="0.90" vaporized=""/>
    <tripinfo id="veh_45" depart="45.00" departLane="-E4_0" departPos="4.90" departSpeed="0.00" departDelay="22.00" arrival="159.00" arrivalLane="-E0_0" arrivalPos="100.00" arrivalSpeed="14.74" duration="114.00" routeLength="289.83" waitingTime="64.00" waitingCount="3" stopTime="0.00" timeLoss="93.17" rerouteNo="0" devices="tripinfo_veh_45" vType="sedan" speedFactor="1.09" vaporized=""/>
    <tripinfo id="veh_34" depart="42.00" departLane="E5_0" departPos="5.20" departSpeed="0.00" departDelay="24.00" arrival="168.00" arrivalLane="E4_0" arrivalPos="92.80" arrivalSpeed="11.90" duration="126.00" routeLength="194.80" waitingTime="70.00" waitingCount="4" stopTime="0.00" timeLoss="111.25" rerouteNo="0" devices="tripinfo_veh_34" vType="wagon" speedFactor="0.99" vaporized=""/>
    <tripinfo id="veh_58" depart="61.00" departLane="-E4_0" departPos="5.10" departSpeed="0.00" departDelay="31.00" arrival="168.00" arrivalLane="E3_0" arrivalPos="100.00" arrivalSpeed="14.18" duration="107.00" routeLength="294.80" waitingTime="58.00" waitingCount="2" stopTime="0.00" timeLoss="85.00" rerouteNo="0" devices="tripinfo_veh_58" vType="standard_car" speedFactor="1.02" vaporized=""/>
    <tripinfo id="veh_42" depart="52.00" departLane="E5_0" departPos="4.90" departSpeed="0.00" departDelay="30.00" arrival="171.00" arrivalLane="E4_0" arrivalPos="92.80" arrivalSpeed="12.37" duration="119.00" routeLength="195.10" waitingTime="67.00" waitingCount="4" stopTime="0.00" timeLoss="106.08" rerouteNo="0" devices="tripinfo_veh_42" vType="sedan" speedFactor="1.09" vaporized=""/>
    <tripinfo id="veh_46" depart="58.00" departLane="E5_0" departPos="5.20" departSpeed="0.00" departDelay="34.00" arrival="173.00" arrivalLane="E4_0" arrivalPos="92.80" arrivalSpeed="12.62" duration="115.00" routeLength="194.80" waitingTime="62.00" waitingCount="3" stopTime="0.00" timeLoss="100.80" rerouteNo="0" devices="tripinfo_veh_46" vType="wagon" speedFactor="1.00" vaporized=""/>
    <tripinfo id="veh_29" depart="36.00" departLane="E5_0" departPos="5.60" departSpeed="0.00" departDelay="19.00" arrival="174.00" arrivalLane="-E0_0" arrivalPos="100.00" arrivalSpeed="12.78" duration="138.00" routeLength="294.30" waitingTime="73.00" waitingCount="5" stopTime="0.00" timeLoss="114.19" rerouteNo="0" devices="tripinfo_veh_29" vType="van" speedFactor="0.93" vaporized=""/>
    <tripinfo id="veh_40" depart="47.00" departLane="E5_0" departPos="5.60" departSpeed="0.00" departDelay="26.00" arrival="177.00" arrivalLane="E3_0" arrivalPos="100.00" arrivalSpeed="14.30" duration="130.00" routeLength="289.13" waitingTime="67.00" waitingCount="4" stopTime="0.00" timeLoss="108.83" rerouteNo="0" devices="tripinfo_veh_40" vType="van" speedFactor="1.03" vaporized=""/>
    <tripinfo id="veh_50" depart="68.00" departLane="E5_0" departPos="5.60" departSpeed="0.00" departDelay="42.00" arrival="179.00" arrivalLane="E4_0" arrivalPos="92.80" arrivalSpeed="11.61" duration="111.00" routeLength="194.40" waitingTime="57.00" waitingCount="3" stopTime="0.00" timeLoss="93.74" rerouteNo="0" devices="tripinfo_veh_50" vType="van" speedFactor="0.85" vaporized=""/>
    <tripinfo id="veh_49" depart="63.00" departLane="E5_0" departPos="4.90" departSpeed="0.00" departDelay="37.00" arrival="186.00" arrivalLane="E3_0" arrivalPos="100.00" arrivalSpeed="11.49" duration="123.00" routeLength="289.83" waitingTime="60.00" waitingCount="3" stopTime="0.00" timeLoss="97.03" rerouteNo="0" devices="tripinfo_veh_49" vType="sedan" speedFactor="0.85" vaporized=""/>
    <tripinfo id="veh_91" depart="104.00" departLane="-E3_0" departPos="5.20" departSpeed="0.00" departDelay="32.00" arrival="195.00" arrivalLane="E4_0" arrivalPos="92.80" arrivalSpeed="11.31" duration="91.00" routeLength="289.53" waitingTime="42.00" waitingCount="2" stopTime="0.00" timeLoss="66.41" rerouteNo="0" devices="tripinfo_veh_91" vType="wagon" speedFactor="0.89" vaporized=""/>
    <tripinfo id="veh_59" depart="67.00" departLane="-E4_0" departPos="5.10" departSpeed="0.00" departDelay="36.00" arrival="197.00" arrivalLane="E3_0" arrivalPos="100.00" arrivalSpeed="13.27" duration="130.00" routeLength="294.80" waitingTime="74.00" waitingCount="3" stopTime="0.00" timeLoss="107.27" rerouteNo="0" devices="tripinfo_veh_59" vType="standard_car" speedFactor="0.97" vaporized=""/>
    <tripinfo id="veh_90" depart="99.00" departLane="-E3_0" departPos="5.60" departSpeed="0.00" departDelay="28.00" arrival="202.00" arrivalLane="-E0_0" arrivalPos="100.00" arrivalSpeed="13.88" duration="103.00" routeLength="394.60" waitingTime="44.00" waitingCount="1" stopTime="0.00" timeLoss="74.67" rerouteNo="0" devices="tripinfo_veh_90" vType="van" speedFactor="1.02" vaporized=""/>
    <tripinfo id="veh_15" depart="26.00" departLane="E0_0" departPos="5.20" departSpeed="0.00" departDelay="18.00" arrival="203.00" arrivalLane="E4_0" arrivalPos="92.80" arrivalSpeed="11.36" duration="177.00" routeLength="294.70" waitingTime="99.00" waitingCount="6" stopTime="0.00" timeLoss="152.77" rerouteNo="0" devices="tripinfo_veh_15" vType="wagon" speedFactor="0.93" vaporized=""/>
    <tripinfo id="veh_54" depart="79.00" departLane="E5_0" departPos="5.60" departSpeed="0.00" departDelay="51.00" arrival="210.00" arrivalLane="E4_0" arrivalPos="92.80" arrivalSpeed="11.32" duration="131.00" routeLength="194.40" waitingTime="65.00" waitingCount="3" stopTime="0.00" timeLoss="116.52" rerouteNo="0" devices="tripinfo_veh_54" vType="van" speedFactor="1.00" vaporized=""/>
    <tripinfo id="veh_53" depart="74.00" departLane="E5_0" departPos="4.90" departSpeed="0.00" departDelay="46.00" arrival="213.00" arrivalLane="E3_0" arrivalPos="100.00" arrivalSpeed="14.92" duration="139.00" routeLength="289.83" waitingTime="70.00" waitingCount="4" stopTime="0.00" timeLoss="118.74" rerouteNo="0" devices="tripinfo_veh_53" vType="sedan" speedFactor="1.10" vaporized=""/>
    <tripinfo id="veh_64" depart="85.00" departLane="E5_0" departPos="5.60" departSpeed="0.00" departDelay="53.00" arrival="219.00" arrivalLane="E3_0" arrivalPos="100.00" arrivalSpeed="13.02" duration="134.00" routeLength="289.13" waitingTime="63.00" waitingCount="3" stopTime="0.00" timeLoss="110.60" rerouteNo="0" devices="tripinfo_veh_64" vType="van" speedFactor="0.94" vaporized=""/>
    <tripinfo id="veh_63" depart="72.00" departLane="-E4_0" departPos="4.40" departSpeed="0.00" departDelay="40.00" arrival="225.00" arrivalLane="E3_0" arrivalPos="100.00" arrivalSpeed="13.63" duration="153.00" routeLength="295.50" waitingTime="88.00" waitingCount="6" stopTime="0.00" timeLoss="130.15" rerouteNo="0" devices="tripinfo_veh_63" vType="hatchback" speedFactor="0.99" vaporized=""/>
    <tripinfo id="veh_17" depart="31.00" departLane="E0_0" departPos="4.40" departSpeed="0.00" departDelay="22.00" arrival="228.00" arrivalLane="E3_0" arrivalPos="100.00" arrivalSpeed="12.74" duration="197.00" routeLength="395.80" waitingTime="109.00" waitingCount="6" stopTime="0.00" timeLoss="166.18" rerouteNo="0" devices="tripinfo_veh_17" vType="hatchback" speedFactor="0.94" vaporized=""/>
    <tripinfo id="veh_18" depart="36.00" departLane="E0_0" departPos="4.90" departSpeed="0.00" departDelay="27.00" arrival="232.00" arrivalLane="E4_0" arrivalPos="92.80" arrivalSpeed="10.67" duration="196.00" routeLength="295.00" waitingTime="108.00" waitingCount="6" stopTime="0.00" timeLoss="172.32" rerouteNo="0" devices="tripinfo_veh_18" vType="sedan" speedFactor="0.94" vaporized=""/>
    <tripinfo id="veh_96" depart="110.00" departLane="-E3_0" departPos="5.60" departSpeed="0.00" departDelay="24.00" arrival="233.00" arrivalLane="-E5_0" arrivalPos="92.80" arrivalSpeed="10.66" duration="123.00" routeLength="294.30" waitingTime="61.00" waitingCount="3" stopTime="0.00" timeLoss="100.76" rerouteNo="0" devices="tripinfo_veh_96" vType="van" speedFactor="1.01" vaporized=""/>
    <tripinfo id="veh_66" depart="90.00" departLane="E5_0" departPos="4.40" departSpeed="0.00" departDelay="56.00" arrival="244.00" arrivalLane="E3_0" arrivalPos="100.00" arrivalSpeed="12.41" duration="154.00" routeLength="290.33" waitingTime="81.00" waitingCount="5" stopTime="0.00" timeLoss="129.69" rerouteNo="0" devices="tripinfo_veh_66" vType="hatchback" speedFactor="0.91" vaporized=""/>
    <tripinfo id="veh_20" depart="41.00" departLane="E0_0" departPos="5.20" departSpeed="0.00" departDelay="30.00" arrival="247.00" arrivalLane="-E5_0" arrivalPos="92.80" arrivalSpeed="11.53" duration="206.00" routeLength="289.53" waitingTime="114.00" waitingCount="8" stopTime="0.00" timeLoss="184.21" rerouteNo="0" devices="tripinfo_veh_20" vType="wagon" speedFactor="1.02" vaporized=""/>
    <tripinfo id="veh_72" depart="96.00" departLane="E5_0" departPos="5.20" departSpeed="0.00" departDelay="60.00" arrival="248.00" arrivalLane="-E0_0" arrivalPos="100.00" arrivalSpeed="12.81" duration="152.00" routeLength="294.70" waitingTime="77.00" waitingCount="4" stopTime="0.00" timeLoss="128.62" rerouteNo="0" devices="tripinfo_veh_72" vType="wagon" speedFactor="0.94" vaporized=""/>
    <tripinfo id="veh_65" depart="77.00" departLane="-E4_0" departPos="5.10" departSpeed="0.00" departDelay="44.00" arrival="249.00" arrivalLane="E3_0" arrivalPos="100.00" arrivalSpeed="11.96" duration="172.00" routeLength="294.80" waitingTime="101.00" waitingCount="6" stopTime="0.00" timeLoss="146.99" rerouteNo="0" devices="tripinfo_veh_65" vType="standard_car" speedFactor="0.88" vaporized=""/>
    <tripinfo id="veh_71" depart="82.00" departLane="-E4_0" departPos="4.90" departSpeed="0.00" departDelay="46.00" arrival="253.00" arrivalLane="-E5_0" arrivalPos="92.80" arrivalSpeed="11.30" duration="171.00" routeLength="195.10" waitingTime="100.00" waitingCount="6" stopTime="0.00" timeLoss="155.98" rerouteNo="0" devices="tripinfo_veh_71" vType="sedan" speedFactor="0.97" vaporized=""/>
    <tripinfo id="veh_98" depart="115.00" departLane="-E3_0" departPos="4.90" departSpeed="0.00" departDelay="26.00" arrival="253.00" arrivalLane="-E0_0" arrivalPos="100.00" arrivalSpeed="15.25" duration="138.00" routeLength="395.30" waitingTime="65.00" waitingCount="5" stopTime="0.00" timeLoss="112.43" rerouteNo="0" devices="tripinfo_veh_98" vType="sedan" speedFactor="1.12" vaporized=""/>
    <tripinfo id="veh_76" depart="161.00" departLane="E5_0" departPos="5.20" departSpeed="0.00" departDelay="122.00" arrival="256.00" arrivalLane="E3_0" arrivalPos="100.00" arrivalSpeed="14.29" duration="95.00" routeLength="289.53" waitingTime="31.00" waitingCount="4" stopTime="0.00" timeLoss="73.89" rerouteNo="0" devices="tripinfo_veh_76" vType="wagon" speedFactor="1.03" vaporized=""/>
    <tripinfo id="veh_77" depart="87.00" departLane="-E4_0" departPos="4.90" departSpeed="0.00" departDelay="47.00" arrival="263.00" arrivalLane="-E5_0" arrivalPos="92.80" arrivalSpeed="10.84" duration="176.00" routeLength="195.10" waitingTime="100.00" waitingCount="7" stopTime="0.00" timeLoss="161.58" rerouteNo="0" devices="tripinfo_veh_77" vType="sedan" speedFactor="0.98" vaporized=""/>
    <tripinfo id="veh_100" depart="120.00" departLane="-E3_0" departPos="5.20" departSpeed="0.00" departDelay="27.00" arrival="263.00" arrivalLane="-E0_0" arrivalPos="100.00" arrivalSpeed="14.73" duration="143.00" routeLength="395.00" waitingTime="62.00" waitingCount="5" stopTime="0.00" timeLoss="116.13" rerouteNo="0" devices="tripinfo_veh_100" vType="wagon" speedFactor="1.06" vaporized=""/>
    <tripinfo id="veh_21" depart="46.00" departLane="E0_0" departPos="5.10" departSpeed="0.00" departDelay="34.00" arrival="266.00" arrivalLane="E3_0" arrivalPos="100.00" arrivalSpeed="13.80" duration="220.00" routeLength="395.10" waitingTime="111.00" waitingCount="10" stopTime="0.00" timeLoss="191.83" rerouteNo="0" devices="tripinfo_veh_21" vType="standard_car" speedFactor="1.01" vaporized=""/>
    <tripinfo id="veh_86" depart="167.00" departLane="E5_0" departPos="5.10" departSpeed="0.00" departDelay="111.00" arrival="272.00" arrivalLane="E3_0" arrivalPos="100.00" arrivalSpeed="13.61" duration="105.00" routeLength="289.63" waitingTime="35.00" waitingCount="5" stopTime="0.00" timeLoss="83.06" rerouteNo="0" devices="tripinfo_veh_86" vType="standard_car" speedFactor="1.00" vaporized=""/>
    <tripinfo id="veh_23" depart="52.00" departLane="E0_0" departPos="5.60" departSpeed="0.00" departDelay="38.00" arrival="275.00" arrivalLane="-E5_0" arrivalPos="92.80" arrivalSpeed="10.67" duration="223.00" routeLength="289.13" waitingTime="115.00" waitingCount="10" stopTime="0.00" timeLoss="198.46" rerouteNo="0" devices="tripinfo_veh_23" vType="van" speedFactor="0.89" vaporized=""/>
    <tripinfo id="veh_78" depart="141.00" departLane="-E4_0" departPos="5.10" departSpeed="0.00" departDelay="100.00" arrival="278.00" arrivalLane="E3_0" arrivalPos="100.00" arrivalSpeed="13.98" duration="137.00" routeLength="294.80" waitingTime="54.00" waitingCount="8" stopTime="0.00" timeLoss="114.54" rerouteNo="0" devices="tripinfo_veh_78" vType="standard_car" speedFactor="1.01" vaporized=""/>